NaCl rock salt
1.0
2.820000  0.000000  0.000000
0.000000  2.820000  0.000000
0.000000  0.000000  2.820000
Na Cl
1 1
Direct
0.000000  0.000000  0.000000
0.500000  0.500000  0.500000

  2   5   2
 0.10000000E+01 0.20000000E+01 0.30000000E+01 0.40000000E+01 0.50000000E+01
 0.60000000E+01 0.70000000E+01 0.80000000E+01 0.90000000E+01 0.10000000E+02
 0.11000000E+02 0.12000000E+02 0.13000000E+02 0.14000000E+02 0.15000000E+02
 0.16000000E+02 0.17000000E+02 0.18000000E+02 0.19000000E+02 0.20000000E+02
